<?xml version="1.0"?>

<!-- generated on Wed Mar  4 08:17:35 2020 by SUMO sumo Version 0.12.3
<?xml version="1.0" encoding="iso-8859-1"?>

<configuration xmlns:xsi="http://www.w3.org/2001/XMLSchema-instance" xsi:noNamespaceSchemaLocation="http://sumo.sf.net/xsd/sumoConfiguration.xsd">

    <input>
        <net-file value="/home/girikrish/Documents/projectfolder2/vanet.net.xml"/>
        <route-files value="/home/girikrish/Documents/projectfolder2/vanet.rou.xml"/>
    </input>

    <output>
        <netstate-dump value="/home/girikrish/Documents/projectfolder2/vanet.sumo.tr"/>
        <emissions-output value="/home/girikrish/Documents/projectfolder2/output-emissions.xml"/>
        <tripinfo-output value="/home/girikrish/Documents/projectfolder2/output-tripinfos.xml"/>
        <vehroute-output value="/home/girikrish/Documents/projectfolder2/output-vehroutes.xml"/>
    </output>

    <time>
        <begin value="0"/>
        <end value="1000"/>
    </time>

    <processing>
        <route-steps value="-1"/>
        <time-to-teleport value="-1"/>
    </processing>

    <report>
        <verbose value="true"/>
        <print-options value="false"/>
    </report>

    <random_number>
        <srand value="23423"/>
    </random_number>

    <gui_only>
        <gui-settings-file value=""/>
    </gui_only>

</configuration>
-->

<sumo-netstate>
    <timestep time="0.00">
        <edge id="e80">
            <lane id="e80_0">
                <vehicle id="f0_0" pos="7.60" speed="0.00"/>
            </lane>
            <lane id="e80_1"/>
        </edge>
        <edge id="e95">
            <lane id="e95_0">
                <vehicle id="f1_0" pos="7.60" speed="0.00"/>
            </lane>
            <lane id="e95_1"/>
        </edge>
    </timestep>
    <timestep time="1.00">
        <edge id="e80">
            <lane id="e80_0">
                <vehicle id="f0_0" pos="9.31" speed="1.71"/>
            </lane>
            <lane id="e80_1"/>
        </edge>
        <edge id="e95">
            <lane id="e95_0">
                <vehicle id="f1_0" pos="9.08" speed="1.48"/>
            </lane>
            <lane id="e95_1"/>
        </edge>
    </timestep>
    <timestep time="2.00">
        <edge id="e80">
            <lane id="e80_0">
                <vehicle id="f0_0" pos="12.95" speed="3.64"/>
            </lane>
            <lane id="e80_1"/>
        </edge>
        <edge id="e95">
            <lane id="e95_0">
                <vehicle id="f1_0" pos="13.06" speed="3.97"/>
            </lane>
            <lane id="e95_1"/>
        </edge>
    </timestep>
    <timestep time="3.00">
        <edge id="e80">
            <lane id="e80_0">
                <vehicle id="f0_0" pos="19.01" speed="6.06"/>
            </lane>
            <lane id="e80_1"/>
        </edge>
        <edge id="e95">
            <lane id="e95_0">
                <vehicle id="f1_0" pos="18.79" speed="5.73"/>
            </lane>
            <lane id="e95_1"/>
        </edge>
    </timestep>
    <timestep time="4.00">
        <edge id="e80">
            <lane id="e80_0"/>
            <lane id="e80_1">
                <vehicle id="f0_0" pos="27.16" speed="8.15"/>
            </lane>
        </edge>
        <edge id="e95">
            <lane id="e95_0"/>
            <lane id="e95_1">
                <vehicle id="f1_0" pos="26.05" speed="7.26"/>
            </lane>
        </edge>
    </timestep>
    <timestep time="5.00">
        <edge id="e80">
            <lane id="e80_0"/>
            <lane id="e80_1">
                <vehicle id="f0_0" pos="37.00" speed="9.84"/>
            </lane>
        </edge>
        <edge id="e95">
            <lane id="e95_0"/>
            <lane id="e95_1">
                <vehicle id="f1_0" pos="34.81" speed="8.76"/>
            </lane>
        </edge>
    </timestep>
    <timestep time="6.00">
        <edge id="e80">
            <lane id="e80_0"/>
            <lane id="e80_1">
                <vehicle id="f0_0" pos="49.07" speed="12.07"/>
            </lane>
        </edge>
        <edge id="e95">
            <lane id="e95_0"/>
            <lane id="e95_1">
                <vehicle id="f1_0" pos="45.10" speed="10.29"/>
            </lane>
        </edge>
    </timestep>
    <timestep time="7.00">
        <edge id="e80">
            <lane id="e80_0"/>
            <lane id="e80_1">
                <vehicle id="f0_0" pos="57.11" speed="8.03"/>
            </lane>
        </edge>
        <edge id="e95">
            <lane id="e95_0"/>
            <lane id="e95_1">
                <vehicle id="f1_0" pos="57.13" speed="12.03"/>
            </lane>
        </edge>
    </timestep>
    <timestep time="8.00">
        <edge id=":n5_1">
            <lane id=":n5_1_0">
                <vehicle id="f1_0" pos="5.25" speed="13.91"/>
            </lane>
        </edge>
        <edge id="e80">
            <lane id="e80_0"/>
            <lane id="e80_1">
                <vehicle id="f0_0" pos="61.85" speed="4.74"/>
            </lane>
        </edge>
    </timestep>
    <timestep time="9.00">
        <edge id=":n0_9">
            <lane id=":n0_9_0">
                <vehicle id="f0_0" pos="3.15" speed="7.09"/>
            </lane>
        </edge>
        <edge id="e52">
            <lane id="e52_0">
                <vehicle id="f1_0" pos="7.39" speed="15.11"/>
            </lane>
            <lane id="e52_1"/>
        </edge>
    </timestep>
    <timestep time="10.00">
        <edge id=":n0_9">
            <lane id=":n0_9_0">
                <vehicle id="f0_0" pos="11.81" speed="8.66"/>
            </lane>
        </edge>
        <edge id="e52">
            <lane id="e52_0">
                <vehicle id="f1_0" pos="24.23" speed="16.84"/>
            </lane>
            <lane id="e52_1"/>
        </edge>
    </timestep>
    <timestep time="11.00">
        <edge id="e06">
            <lane id="e06_0"/>
            <lane id="e06_1">
                <vehicle id="f0_0" pos="9.22" speed="10.38"/>
            </lane>
        </edge>
        <edge id="e52">
            <lane id="e52_0">
                <vehicle id="f1_0" pos="43.00" speed="18.77"/>
            </lane>
            <lane id="e52_1"/>
        </edge>
    </timestep>
    <timestep time="12.00">
        <edge id="e06">
            <lane id="e06_0"/>
            <lane id="e06_1">
                <vehicle id="f0_0" pos="21.48" speed="12.26"/>
            </lane>
        </edge>
        <edge id="e52">
            <lane id="e52_0">
                <vehicle id="f1_0" pos="63.09" speed="20.09"/>
            </lane>
            <lane id="e52_1"/>
        </edge>
    </timestep>
    <timestep time="13.00">
        <edge id="e06">
            <lane id="e06_0"/>
            <lane id="e06_1">
                <vehicle id="f0_0" pos="34.92" speed="13.44"/>
            </lane>
        </edge>
        <edge id="e24">
            <lane id="e24_0"/>
            <lane id="e24_1">
                <vehicle id="f1_0" pos="1.56" speed="18.74"/>
            </lane>
        </edge>
    </timestep>
    <timestep time="14.00">
        <edge id="e06">
            <lane id="e06_0">
                <vehicle id="f0_0" pos="50.06" speed="15.14"/>
            </lane>
            <lane id="e06_1"/>
        </edge>
        <edge id="e24">
            <lane id="e24_0"/>
            <lane id="e24_1">
                <vehicle id="f1_0" pos="16.36" speed="14.80"/>
            </lane>
        </edge>
    </timestep>
    <timestep time="15.00">
        <edge id="e06">
            <lane id="e06_0">
                <vehicle id="f0_0" pos="66.70" speed="16.64"/>
            </lane>
            <lane id="e06_1"/>
        </edge>
        <edge id="e24">
            <lane id="e24_0"/>
            <lane id="e24_1">
                <vehicle id="f1_0" pos="28.18" speed="11.82"/>
            </lane>
        </edge>
    </timestep>
    <timestep time="16.00">
        <edge id=":n6_8">
            <lane id=":n6_8_0">
                <vehicle id="f0_0" pos="11.67" speed="18.59"/>
            </lane>
        </edge>
        <edge id="e24">
            <lane id="e24_0"/>
            <lane id="e24_1">
                <vehicle id="f1_0" pos="36.31" speed="8.13"/>
            </lane>
        </edge>
    </timestep>
    <timestep time="17.00">
        <edge id="e24">
            <lane id="e24_0"/>
            <lane id="e24_1">
                <vehicle id="f1_0" pos="40.65" speed="4.34"/>
            </lane>
        </edge>
        <edge id="e67">
            <lane id="e67_0">
                <vehicle id="f0_0" pos="11.69" speed="20.36"/>
            </lane>
            <lane id="e67_1"/>
        </edge>
    </timestep>
    <timestep time="18.00">
        <edge id=":n4_6">
            <lane id=":n4_6_0">
                <vehicle id="f1_0" pos="2.75" speed="6.74"/>
            </lane>
        </edge>
        <edge id="e67">
            <lane id="e67_0">
                <vehicle id="f0_0" pos="33.05" speed="21.35"/>
            </lane>
            <lane id="e67_1"/>
        </edge>
    </timestep>
    <timestep time="19.00">
        <edge id=":n4_12">
            <lane id=":n4_12_0">
                <vehicle id="f1_0" pos="2.63" speed="8.72"/>
            </lane>
        </edge>
        <edge id="e67">
            <lane id="e67_0">
                <vehicle id="f0_0" pos="55.61" speed="22.56"/>
            </lane>
            <lane id="e67_1"/>
        </edge>
    </timestep>
    <timestep time="20.00">
        <edge id="e43">
            <lane id="e43_0"/>
            <lane id="e43_1">
                <vehicle id="f1_0" pos="6.68" speed="10.85"/>
            </lane>
        </edge>
        <edge id="e67">
            <lane id="e67_0">
                <vehicle id="f0_0" pos="79.82" speed="24.21"/>
            </lane>
            <lane id="e67_1"/>
        </edge>
    </timestep>
    <timestep time="21.00">
        <edge id="e43">
            <lane id="e43_0"/>
            <lane id="e43_1">
                <vehicle id="f1_0" pos="19.30" speed="12.62"/>
            </lane>
        </edge>
        <edge id="e67">
            <lane id="e67_0">
                <vehicle id="f0_0" pos="104.95" speed="25.13"/>
            </lane>
            <lane id="e67_1"/>
        </edge>
    </timestep>
    <timestep time="22.00">
        <edge id=":n7_7">
            <lane id=":n7_7_0">
                <vehicle id="f0_0" pos="7.66" speed="26.61"/>
            </lane>
        </edge>
        <edge id="e43">
            <lane id="e43_0"/>
            <lane id="e43_1">
                <vehicle id="f1_0" pos="33.78" speed="14.48"/>
            </lane>
        </edge>
    </timestep>
    <timestep time="23.00">
        <edge id="e43">
            <lane id="e43_0"/>
            <lane id="e43_1">
                <vehicle id="f1_0" pos="50.15" speed="16.37"/>
            </lane>
        </edge>
        <edge id="e74">
            <lane id="e74_0"/>
            <lane id="e74_1">
                <vehicle id="f0_0" pos="21.26" speed="26.99"/>
            </lane>
        </edge>
    </timestep>
    <timestep time="24.00">
        <edge id="e43">
            <lane id="e43_0"/>
            <lane id="e43_1">
                <vehicle id="f1_0" pos="67.73" speed="17.59"/>
            </lane>
        </edge>
        <edge id="e74">
            <lane id="e74_0"/>
            <lane id="e74_1">
                <vehicle id="f0_0" pos="44.43" speed="23.17"/>
            </lane>
        </edge>
    </timestep>
    <timestep time="25.00">
        <edge id="e42">
            <lane id="e42_0"/>
            <lane id="e42_1">
                <vehicle id="f0_0" pos="2.96" speed="19.27"/>
            </lane>
        </edge>
        <edge id="e43">
            <lane id="e43_0"/>
            <lane id="e43_1">
                <vehicle id="f1_0" pos="85.52" speed="17.79"/>
            </lane>
        </edge>
    </timestep>
    <timestep time="26.00">
        <edge id="e42">
            <lane id="e42_0"/>
            <lane id="e42_1">
                <vehicle id="f0_0" pos="17.62" speed="14.66"/>
            </lane>
        </edge>
        <edge id="e43">
            <lane id="e43_0"/>
            <lane id="e43_1">
                <vehicle id="f1_0" pos="99.53" speed="14.01"/>
            </lane>
        </edge>
    </timestep>
    <timestep time="27.00">
        <edge id="e42">
            <lane id="e42_0"/>
            <lane id="e42_1">
                <vehicle id="f0_0" pos="28.60" speed="10.98"/>
            </lane>
        </edge>
        <edge id="e43">
            <lane id="e43_0"/>
            <lane id="e43_1">
                <vehicle id="f1_0" pos="109.48" speed="9.95"/>
            </lane>
        </edge>
    </timestep>
    <timestep time="28.00">
        <edge id="e42">
            <lane id="e42_0"/>
            <lane id="e42_1">
                <vehicle id="f0_0" pos="35.83" speed="7.23"/>
            </lane>
        </edge>
        <edge id="e43">
            <lane id="e43_0"/>
            <lane id="e43_1">
                <vehicle id="f1_0" pos="116.88" speed="7.39"/>
            </lane>
        </edge>
    </timestep>
    <timestep time="29.00">
        <edge id="e42">
            <lane id="e42_0"/>
            <lane id="e42_1">
                <vehicle id="f0_0" pos="40.72" speed="4.89"/>
            </lane>
        </edge>
        <edge id="e43">
            <lane id="e43_0"/>
            <lane id="e43_1">
                <vehicle id="f1_0" pos="120.81" speed="3.93"/>
            </lane>
        </edge>
    </timestep>
    <timestep time="30.00">
        <edge id="e42">
            <lane id="e42_0"/>
            <lane id="e42_1">
                <vehicle id="f0_0" pos="43.46" speed="2.74"/>
            </lane>
        </edge>
        <edge id="e43">
            <lane id="e43_0"/>
            <lane id="e43_1">
                <vehicle id="f1_0" pos="122.08" speed="1.27"/>
            </lane>
        </edge>
    </timestep>
    <timestep time="31.00">
        <edge id="e42">
            <lane id="e42_0"/>
            <lane id="e42_1">
                <vehicle id="f0_0" pos="44.42" speed="0.96"/>
            </lane>
        </edge>
        <edge id="e43">
            <lane id="e43_0"/>
            <lane id="e43_1">
                <vehicle id="f1_0" pos="123.13" speed="1.05"/>
            </lane>
        </edge>
    </timestep>
    <timestep time="32.00">
        <edge id="e42">
            <lane id="e42_0"/>
            <lane id="e42_1">
                <vehicle id="f0_0" pos="44.62" speed="0.20"/>
            </lane>
        </edge>
        <edge id="e43">
            <lane id="e43_0"/>
            <lane id="e43_1">
                <vehicle id="f1_0" pos="123.83" speed="0.70"/>
            </lane>
        </edge>
    </timestep>
    <timestep time="33.00">
        <edge id="e42">
            <lane id="e42_0"/>
            <lane id="e42_1">
                <vehicle id="f0_0" pos="44.64" speed="0.02"/>
            </lane>
        </edge>
        <edge id="e43">
            <lane id="e43_0"/>
            <lane id="e43_1">
                <vehicle id="f1_0" pos="123.88" speed="0.05"/>
            </lane>
        </edge>
    </timestep>
    <timestep time="34.00">
        <edge id="e42">
            <lane id="e42_0"/>
            <lane id="e42_1">
                <vehicle id="f0_0" pos="44.64" speed="0.00"/>
            </lane>
        </edge>
        <edge id="e43">
            <lane id="e43_0"/>
            <lane id="e43_1">
                <vehicle id="f1_0" pos="123.90" speed="0.02"/>
            </lane>
        </edge>
    </timestep>
    <timestep time="35.00">
        <edge id="e42">
            <lane id="e42_0"/>
            <lane id="e42_1">
                <vehicle id="f0_0" pos="44.64" speed="0.00"/>
            </lane>
        </edge>
        <edge id="e43">
            <lane id="e43_0"/>
            <lane id="e43_1">
                <vehicle id="f1_0" pos="123.90" speed="0.00"/>
            </lane>
        </edge>
    </timestep>
    <timestep time="36.00">
        <edge id="e42">
            <lane id="e42_0"/>
            <lane id="e42_1">
                <vehicle id="f0_0" pos="44.64" speed="0.00"/>
            </lane>
        </edge>
        <edge id="e43">
            <lane id="e43_0"/>
            <lane id="e43_1">
                <vehicle id="f1_0" pos="123.90" speed="0.00"/>
            </lane>
        </edge>
    </timestep>
    <timestep time="37.00">
        <edge id="e42">
            <lane id="e42_0"/>
            <lane id="e42_1">
                <vehicle id="f0_0" pos="44.64" speed="0.00"/>
            </lane>
        </edge>
        <edge id="e43">
            <lane id="e43_0"/>
            <lane id="e43_1">
                <vehicle id="f1_0" pos="123.90" speed="0.00"/>
            </lane>
        </edge>
    </timestep>
    <timestep time="38.00">
        <edge id="e42">
            <lane id="e42_0"/>
            <lane id="e42_1">
                <vehicle id="f0_0" pos="44.64" speed="0.00"/>
            </lane>
        </edge>
        <edge id="e43">
            <lane id="e43_0"/>
            <lane id="e43_1">
                <vehicle id="f1_0" pos="123.90" speed="0.00"/>
            </lane>
        </edge>
    </timestep>
    <timestep time="39.00">
        <edge id="e42">
            <lane id="e42_0"/>
            <lane id="e42_1">
                <vehicle id="f0_0" pos="44.64" speed="0.00"/>
            </lane>
        </edge>
        <edge id="e43">
            <lane id="e43_0"/>
            <lane id="e43_1">
                <vehicle id="f1_0" pos="123.90" speed="0.00"/>
            </lane>
        </edge>
    </timestep>
    <timestep time="40.00">
        <edge id="e42">
            <lane id="e42_0"/>
            <lane id="e42_1">
                <vehicle id="f0_0" pos="44.64" speed="0.00"/>
            </lane>
        </edge>
        <edge id="e43">
            <lane id="e43_0"/>
            <lane id="e43_1">
                <vehicle id="f1_0" pos="123.90" speed="0.00"/>
            </lane>
        </edge>
    </timestep>
    <timestep time="41.00">
        <edge id="e42">
            <lane id="e42_0"/>
            <lane id="e42_1">
                <vehicle id="f0_0" pos="44.64" speed="0.00"/>
            </lane>
        </edge>
        <edge id="e43">
            <lane id="e43_0"/>
            <lane id="e43_1">
                <vehicle id="f1_0" pos="123.90" speed="0.00"/>
            </lane>
        </edge>
    </timestep>
    <timestep time="42.00">
        <edge id="e42">
            <lane id="e42_0"/>
            <lane id="e42_1">
                <vehicle id="f0_0" pos="44.64" speed="0.00"/>
            </lane>
        </edge>
        <edge id="e43">
            <lane id="e43_0"/>
            <lane id="e43_1">
                <vehicle id="f1_0" pos="123.90" speed="0.00"/>
            </lane>
        </edge>
    </timestep>
    <timestep time="43.00">
        <edge id="e42">
            <lane id="e42_0"/>
            <lane id="e42_1">
                <vehicle id="f0_0" pos="44.64" speed="0.00"/>
            </lane>
        </edge>
        <edge id="e43">
            <lane id="e43_0"/>
            <lane id="e43_1">
                <vehicle id="f1_0" pos="123.90" speed="0.00"/>
            </lane>
        </edge>
    </timestep>
    <timestep time="44.00">
        <edge id="e42">
            <lane id="e42_0"/>
            <lane id="e42_1">
                <vehicle id="f0_0" pos="44.64" speed="0.00"/>
            </lane>
        </edge>
        <edge id="e43">
            <lane id="e43_0"/>
            <lane id="e43_1">
                <vehicle id="f1_0" pos="123.90" speed="0.00"/>
            </lane>
        </edge>
    </timestep>
    <timestep time="45.00">
        <edge id="e42">
            <lane id="e42_0"/>
            <lane id="e42_1">
                <vehicle id="f0_0" pos="44.64" speed="0.00"/>
            </lane>
        </edge>
        <edge id="e43">
            <lane id="e43_0"/>
            <lane id="e43_1">
                <vehicle id="f1_0" pos="123.90" speed="0.00"/>
            </lane>
        </edge>
    </timestep>
    <timestep time="46.00">
        <edge id="e42">
            <lane id="e42_0"/>
            <lane id="e42_1">
                <vehicle id="f0_0" pos="44.64" speed="0.00"/>
            </lane>
        </edge>
        <edge id="e43">
            <lane id="e43_0"/>
            <lane id="e43_1">
                <vehicle id="f1_0" pos="123.90" speed="0.00"/>
            </lane>
        </edge>
    </timestep>
    <timestep time="47.00">
        <edge id="e42">
            <lane id="e42_0"/>
            <lane id="e42_1">
                <vehicle id="f0_0" pos="44.64" speed="0.00"/>
            </lane>
        </edge>
        <edge id="e43">
            <lane id="e43_0"/>
            <lane id="e43_1">
                <vehicle id="f1_0" pos="123.90" speed="0.00"/>
            </lane>
        </edge>
    </timestep>
    <timestep time="48.00">
        <edge id="e42">
            <lane id="e42_0"/>
            <lane id="e42_1">
                <vehicle id="f0_0" pos="44.64" speed="0.00"/>
            </lane>
        </edge>
        <edge id="e43">
            <lane id="e43_0"/>
            <lane id="e43_1">
                <vehicle id="f1_0" pos="123.90" speed="0.00"/>
            </lane>
        </edge>
    </timestep>
    <timestep time="49.00">
        <edge id="e42">
            <lane id="e42_0"/>
            <lane id="e42_1">
                <vehicle id="f0_0" pos="44.64" speed="0.00"/>
            </lane>
        </edge>
        <edge id="e43">
            <lane id="e43_0"/>
            <lane id="e43_1">
                <vehicle id="f1_0" pos="123.90" speed="0.00"/>
            </lane>
        </edge>
    </timestep>
    <timestep time="50.00">
        <edge id="e42">
            <lane id="e42_0"/>
            <lane id="e42_1">
                <vehicle id="f0_0" pos="44.64" speed="0.00"/>
            </lane>
        </edge>
        <edge id="e43">
            <lane id="e43_0"/>
            <lane id="e43_1">
                <vehicle id="f1_0" pos="123.90" speed="0.00"/>
            </lane>
        </edge>
    </timestep>
    <timestep time="51.00">
        <edge id="e42">
            <lane id="e42_0"/>
            <lane id="e42_1">
                <vehicle id="f0_0" pos="44.64" speed="0.00"/>
            </lane>
        </edge>
        <edge id="e43">
            <lane id="e43_0"/>
            <lane id="e43_1">
                <vehicle id="f1_0" pos="123.90" speed="0.00"/>
            </lane>
        </edge>
    </timestep>
    <timestep time="52.00">
        <edge id="e42">
            <lane id="e42_0"/>
            <lane id="e42_1">
                <vehicle id="f0_0" pos="44.64" speed="0.00"/>
            </lane>
        </edge>
        <edge id="e43">
            <lane id="e43_0"/>
            <lane id="e43_1">
                <vehicle id="f1_0" pos="123.90" speed="0.00"/>
            </lane>
        </edge>
    </timestep>
    <timestep time="53.00">
        <edge id="e42">
            <lane id="e42_0"/>
            <lane id="e42_1">
                <vehicle id="f0_0" pos="44.64" speed="0.00"/>
            </lane>
        </edge>
        <edge id="e43">
            <lane id="e43_0"/>
            <lane id="e43_1">
                <vehicle id="f1_0" pos="123.90" speed="0.00"/>
            </lane>
        </edge>
    </timestep>
    <timestep time="54.00">
        <edge id="e42">
            <lane id="e42_0"/>
            <lane id="e42_1">
                <vehicle id="f0_0" pos="44.64" speed="0.00"/>
            </lane>
        </edge>
        <edge id="e43">
            <lane id="e43_0"/>
            <lane id="e43_1">
                <vehicle id="f1_0" pos="123.90" speed="0.00"/>
            </lane>
        </edge>
    </timestep>
    <timestep time="55.00">
        <edge id="e42">
            <lane id="e42_0"/>
            <lane id="e42_1">
                <vehicle id="f0_0" pos="44.64" speed="0.00"/>
            </lane>
        </edge>
        <edge id="e43">
            <lane id="e43_0"/>
            <lane id="e43_1">
                <vehicle id="f1_0" pos="123.90" speed="0.00"/>
            </lane>
        </edge>
    </timestep>
    <timestep time="56.00">
        <edge id="e42">
            <lane id="e42_0"/>
            <lane id="e42_1">
                <vehicle id="f0_0" pos="44.64" speed="0.00"/>
            </lane>
        </edge>
        <edge id="e43">
            <lane id="e43_0"/>
            <lane id="e43_1">
                <vehicle id="f1_0" pos="123.90" speed="0.00"/>
            </lane>
        </edge>
    </timestep>
    <timestep time="57.00">
        <edge id="e42">
            <lane id="e42_0"/>
            <lane id="e42_1">
                <vehicle id="f0_0" pos="44.64" speed="0.00"/>
            </lane>
        </edge>
        <edge id="e43">
            <lane id="e43_0"/>
            <lane id="e43_1">
                <vehicle id="f1_0" pos="123.90" speed="0.00"/>
            </lane>
        </edge>
    </timestep>
    <timestep time="58.00">
        <edge id="e42">
            <lane id="e42_0"/>
            <lane id="e42_1">
                <vehicle id="f0_0" pos="44.64" speed="0.00"/>
            </lane>
        </edge>
        <edge id="e43">
            <lane id="e43_0"/>
            <lane id="e43_1">
                <vehicle id="f1_0" pos="123.90" speed="0.00"/>
            </lane>
        </edge>
    </timestep>
    <timestep time="59.00">
        <edge id="e42">
            <lane id="e42_0"/>
            <lane id="e42_1">
                <vehicle id="f0_0" pos="44.64" speed="0.00"/>
            </lane>
        </edge>
        <edge id="e43">
            <lane id="e43_0"/>
            <lane id="e43_1">
                <vehicle id="f1_0" pos="123.90" speed="0.00"/>
            </lane>
        </edge>
    </timestep>
    <timestep time="60.00">
        <edge id="e42">
            <lane id="e42_0"/>
            <lane id="e42_1">
                <vehicle id="f0_0" pos="44.64" speed="0.00"/>
            </lane>
        </edge>
        <edge id="e43">
            <lane id="e43_0"/>
            <lane id="e43_1">
                <vehicle id="f1_0" pos="123.90" speed="0.00"/>
            </lane>
        </edge>
    </timestep>
    <timestep time="61.00">
        <edge id="e42">
            <lane id="e42_0"/>
            <lane id="e42_1">
                <vehicle id="f0_0" pos="44.64" speed="0.00"/>
            </lane>
        </edge>
        <edge id="e43">
            <lane id="e43_0"/>
            <lane id="e43_1">
                <vehicle id="f1_0" pos="123.90" speed="0.00"/>
            </lane>
        </edge>
    </timestep>
    <timestep time="62.00">
        <edge id="e42">
            <lane id="e42_0"/>
            <lane id="e42_1">
                <vehicle id="f0_0" pos="44.64" speed="0.00"/>
            </lane>
        </edge>
        <edge id="e43">
            <lane id="e43_0"/>
            <lane id="e43_1">
                <vehicle id="f1_0" pos="123.90" speed="0.00"/>
            </lane>
        </edge>
    </timestep>
    <timestep time="63.00">
        <edge id=":n2_1">
            <lane id=":n2_1_0">
                <vehicle id="f0_0" pos="1.37" speed="1.38"/>
            </lane>
        </edge>
        <edge id=":n3_5">
            <lane id=":n3_5_0">
                <vehicle id="f1_0" pos="1.54" speed="1.54"/>
            </lane>
        </edge>
    </timestep>
    <timestep time="64.00">
        <edge id=":n2_1">
            <lane id=":n2_1_0">
                <vehicle id="f0_0" pos="5.11" speed="3.74"/>
            </lane>
        </edge>
        <edge id=":n3_13">
            <lane id=":n3_13_0">
                <vehicle id="f1_0" pos="1.39" speed="2.98"/>
            </lane>
        </edge>
    </timestep>
    <timestep time="65.00">
        <edge id=":n2_11">
            <lane id=":n2_11_0">
                <vehicle id="f0_0" pos="1.53" speed="5.79"/>
            </lane>
        </edge>
        <edge id=":n3_13">
            <lane id=":n3_13_0">
                <vehicle id="f1_0" pos="6.06" speed="4.67"/>
            </lane>
        </edge>
    </timestep>
    <timestep time="66.00">
        <edge id=":n2_11">
            <lane id=":n2_11_0">
                <vehicle id="f0_0" pos="9.03" speed="7.50"/>
            </lane>
        </edge>
        <edge id="e31">
            <lane id="e31_0"/>
            <lane id="e31_1">
                <vehicle id="f1_0" pos="0.14" speed="6.59"/>
            </lane>
        </edge>
    </timestep>
    <timestep time="67.00">
        <edge id="e25">
            <lane id="e25_0"/>
            <lane id="e25_1">
                <vehicle id="f0_0" pos="1.42" speed="9.39"/>
            </lane>
        </edge>
        <edge id="e31">
            <lane id="e31_0"/>
            <lane id="e31_1">
                <vehicle id="f1_0" pos="8.78" speed="8.64"/>
            </lane>
        </edge>
    </timestep>
    <timestep time="68.00">
        <edge id="e25">
            <lane id="e25_0"/>
            <lane id="e25_1">
                <vehicle id="f0_0" pos="12.33" speed="10.91"/>
            </lane>
        </edge>
        <edge id="e31">
            <lane id="e31_0"/>
            <lane id="e31_1">
                <vehicle id="f1_0" pos="19.04" speed="10.26"/>
            </lane>
        </edge>
    </timestep>
    <timestep time="69.00">
        <edge id="e25">
            <lane id="e25_0"/>
            <lane id="e25_1">
                <vehicle id="f0_0" pos="24.83" speed="12.50"/>
            </lane>
        </edge>
        <edge id="e31">
            <lane id="e31_0"/>
            <lane id="e31_1">
                <vehicle id="f1_0" pos="31.42" speed="12.37"/>
            </lane>
        </edge>
    </timestep>
    <timestep time="70.00">
        <edge id=":n1_1">
            <lane id=":n1_1_0">
                <vehicle id="f1_0" pos="0.63" speed="13.85"/>
            </lane>
        </edge>
        <edge id="e25">
            <lane id="e25_0"/>